<?xml version="1.0"?>
<VTKFile type="UnstructuredGrid" version="0.1" byte_order="LittleEndian">
 <UnstructuredGrid>
  <Piece NumberOfPoints="8" NumberOfCells="0">
   <Points>
    <DataArray name="Position" type="Float32" NumberOfComponents="3" format="ascii">
0.0005 0.0 0.0
0.0015 0.0005 0.0
0.0025 0.0015 0.0
0.0035 0.0025 0.0
0.0045 0.0035 0.0
0.0055 0.0045 0.0
0.0065 0.0055 0.0
0.0075 0.0065 0.0
    </DataArray>
   </Points>
   <PointData Scalars="scalars">
    <DataArray type="Float32" Name="Position" NumberOfComponents="3" format="ascii">
0.0005 0.0 0.0 0.0015 0.0005 0.0 0.0025 0.0015 0.0 0.0035 0.0025 0.0 0.0045 0.0035 0.0 0.0055 0.0045 0.0 0.0065 0.0055 0.0 0.0075 0.0065 0.0 
    </DataArray>
    <DataArray type="Float32" Name="Theta" format="ascii">
0.0 0.1 0.2 0.3 0.4 0.5 0.6 0.7 
    </DataArray>
    <DataArray type="Float32" Name="Radius" format="ascii">
0.00051 0.00049 0.0005 0.00055 0.00058 0.00047 0.00045 0.0004 
    </DataArray>
    <DataArray type="Int32" Name="Fixed" format="ascii">
0 0 0 1 1 0 0 0 
    </DataArray>
    <DataArray type="Float32" Name="Rho" format="ascii">
2601.0 2602.0 2603.0 2604.0 2605.0 2606.0 2607.0 2608.0 
    </DataArray>
    <DataArray type="Float32" Name="Velocity" NumberOfComponents="3" format="ascii">
0.1 0.2 0.0 0.3 0.4 0.0 0.5 0.6 0.0 0.7 0.8 0.0 0.9 1.0 0.0 1.1 1.2 0.0 1.3 1.4 0.0 1.5 1.6 0.0 
    </DataArray>
    <DataArray type="Float32" Name="Omega" format="ascii">
1.1 1.3 1.5 1.7 1.9 2.1 2.3 2.5 
    </DataArray>
   </PointData>
   <Cells>
    <DataArray type="Int32" Name="connectivity" format="ascii">
    </DataArray>
    <DataArray type="Int32" Name="offsets" format="ascii">
    </DataArray>
    <DataArray type="Int32" Name="types" format="ascii">
    </DataArray>
   </Cells>
  </Piece>
 </UnstructuredGrid>
</VTKFile>
